data.RoughCrack (written by ASE) 

30563 	 atoms 
1  atom types
0.0      143.11456999999999  xlo xhi
0.0      28.636599999999998  ylo yhi
0.0      148.84189000000001  zlo zhi


Atoms 

     1   1                      15                       0                      15
     2   1      16.431830000000001      1.4318299999999999      16.431830000000001
     3   1      17.863659999999999                       0                      15
     4   1      19.295490000000001      1.4318299999999999      16.431830000000001
     5   1      20.727319999999999                       0                      15
     6   1                22.15915      1.4318299999999999      16.431830000000001
     7   1      23.590980000000002                       0                      15
     8   1                25.02281      1.4318299999999999      16.431830000000001
     9   1      26.454639999999998                       0                      15
    10   1      27.886469999999999      1.4318299999999999      16.431830000000001
    11   1      29.318300000000001                       0                      15
    12   1      30.750129999999999      1.4318299999999999      16.431830000000001
    13   1      32.181960000000004                       0                      15
    14   1      33.613790000000002      1.4318299999999999      16.431830000000001
    15   1                35.04562                       0                      15
    16   1      36.477450000000005      1.4318299999999999      16.431830000000001
    17   1      37.909279999999995                       0                      15
    18   1                39.34111      1.4318299999999999      16.431830000000001
    19   1      40.772939999999998                       0                      15
    20   1      42.204769999999996      1.4318299999999999      16.431830000000001
    21   1      43.636600000000001                       0                      15
    22   1      45.068429999999999      1.4318299999999999      16.431830000000001
    23   1      46.500259999999997                       0                      15
    24   1      47.932089999999995      1.4318299999999999      16.431830000000001
    25   1                49.36392                       0                      15
    26   1      50.795749999999998      1.4318299999999999      16.431830000000001
    27   1      52.227579999999996                       0                      15
    28   1      53.659409999999994      1.4318299999999999      16.431830000000001
    29   1      55.091239999999999                       0                      15
    30   1      56.523069999999997      1.4318299999999999      16.431830000000001
    31   1      57.954899999999995                       0                      15
    32   1      59.386729999999993      1.4318299999999999      16.431830000000001
    33   1      60.818559999999998                       0                      15
    34   1      62.250389999999996      1.4318299999999999      16.431830000000001
    35   1      63.682220000000001                       0                      15
    36   1      65.114049999999992      1.4318299999999999      16.431830000000001
    37   1      66.545879999999997                       0                      15
    38   1      67.977710000000002      1.4318299999999999      16.431830000000001
    39   1      69.409539999999993                       0                      15
    40   1      70.841369999999998      1.4318299999999999      16.431830000000001
    41   1                      15      2.8636599999999999                      15
    42   1      16.431830000000001                 4.29549      16.431830000000001
    43   1      17.863659999999999      2.8636599999999999                      15
    44   1      19.295490000000001                 4.29549      16.431830000000001
    45   1      20.727319999999999      2.8636599999999999                      15
    46   1                22.15915                 4.29549      16.431830000000001
    47   1      23.590980000000002      2.8636599999999999                      15
    48   1                25.02281                 4.29549      16.431830000000001
    49   1      26.454639999999998      2.8636599999999999                      15
    50   1      27.886469999999999                 4.29549      16.431830000000001
    51   1      29.318300000000001      2.8636599999999999                      15
    52   1      30.750129999999999                 4.29549      16.431830000000001
    53   1      32.181960000000004      2.8636599999999999                      15
    54   1      33.613790000000002                 4.29549      16.431830000000001
    55   1                35.04562      2.8636599999999999                      15
    56   1      36.477450000000005                 4.29549      16.431830000000001
    57   1      37.909279999999995      2.8636599999999999                      15
    58   1                39.34111                 4.29549      16.431830000000001
    59   1      40.772939999999998      2.8636599999999999                      15
    60   1      42.204769999999996                 4.29549      16.431830000000001
    61   1      43.636600000000001      2.8636599999999999                      15
    62   1      45.068429999999999                 4.29549      16.431830000000001
    63   1      46.500259999999997      2.8636599999999999                      15
    64   1      47.932089999999995                 4.29549      16.431830000000001
    65   1                49.36392      2.8636599999999999                      15
    66   1      50.795749999999998                 4.29549      16.431830000000001
    67   1      52.227579999999996      2.8636599999999999                      15
    68   1      53.659409999999994                 4.29549      16.431830000000001
    69   1      55.091239999999999      2.8636599999999999                      15
    70   1      56.523069999999997                 4.29549      16.431830000000001
    71   1      57.954899999999995      2.8636599999999999                      15
    72   1      59.386729999999993                 4.29549      16.431830000000001
    73   1      60.818559999999998      2.8636599999999999                      15
    74   1      62.250389999999996                 4.29549      16.431830000000001
    75   1      63.682220000000001      2.8636599999999999                      15
    76   1      65.114049999999992                 4.29549      16.431830000000001
    77   1      66.545879999999997      2.8636599999999999                      15
    78   1      67.977710000000002                 4.29549      16.431830000000001
    79   1      69.409539999999993      2.8636599999999999                      15
    80   1      70.841369999999998                 4.29549      16.431830000000001
    81   1                      15      5.7273199999999997                      15
    82   1      16.431830000000001      7.1591499999999995      16.431830000000001
    83   1      17.863659999999999      5.7273199999999997                      15
    84   1      19.295490000000001      7.1591499999999995      16.431830000000001
    85   1      20.727319999999999      5.7273199999999997                      15
    86   1                22.15915      7.1591499999999995      16.431830000000001
    87   1      23.590980000000002      5.7273199999999997                      15
    88   1                25.02281      7.1591499999999995      16.431830000000001
    89   1      26.454639999999998      5.7273199999999997                      15
    90   1      27.886469999999999      7.1591499999999995      16.431830000000001
    91   1      29.318300000000001      5.7273199999999997                      15
    92   1      30.750129999999999      7.1591499999999995      16.431830000000001
    93   1      32.181960000000004      5.7273199999999997                      15
    94   1      33.613790000000002      7.1591499999999995      16.431830000000001
    95   1                35.04562      5.7273199999999997                      15
    96   1      36.477450000000005      7.1591499999999995      16.431830000000001
    97   1      37.909279999999995      5.7273199999999997                      15
    98   1                39.34111      7.1591499999999995      16.431830000000001
    99   1      40.772939999999998      5.7273199999999997                      15
   100   1      42.204769999999996      7.1591499999999995      16.431830000000001
   101   1      43.636600000000001      5.7273199999999997                      15
   102   1      45.068429999999999      7.1591499999999995      16.431830000000001
   103   1      46.500259999999997      5.7273199999999997                      15
   104   1      47.932089999999995      7.1591499999999995      16.431830000000001
   105   1                49.36392      5.7273199999999997                      15
   106   1      50.795749999999998      7.1591499999999995      16.431830000000001
   107   1      52.227579999999996      5.7273199999999997                      15
   108   1      53.659409999999994      7.1591499999999995      16.431830000000001
   109   1      55.091239999999999      5.7273199999999997                      15
   110   1      56.523069999999997      7.1591499999999995      16.431830000000001
   111   1      57.954899999999995      5.7273199999999997                      15
   112   1      59.386729999999993      7.1591499999999995      16.431830000000001
   113   1      60.818559999999998      5.7273199999999997                      15
   114   1      62.250389999999996      7.1591499999999995      16.431830000000001
   115   1      63.682220000000001      5.7273199999999997                      15
   116   1      65.114049999999992      7.1591499999999995      16.431830000000001
   117   1      66.545879999999997      5.7273199999999997                      15
   118   1      67.977710000000002      7.1591499999999995      16.431830000000001
   119   1      69.409539999999993      5.7273199999999997                      15
   120   1      70.841369999999998      7.1591499999999995      16.431830000000001
   121   1                      15      8.5909800000000001                      15
   122   1      16.431830000000001                10.02281      16.431830000000001
   123   1      17.863659999999999      8.5909800000000001                      15
   124   1      19.295490000000001                10.02281      16.431830000000001
   125   1      20.727319999999999      8.5909800000000001                      15
   126   1                22.15915                10.02281      16.431830000000001
   127   1      23.590980000000002      8.5909800000000001                      15
   128   1                25.02281                10.02281      16.431830000000001
   129   1      26.454639999999998      8.5909800000000001                      15
   130   1      27.886469999999999                10.02281      16.431830000000001
   131   1      29.318300000000001      8.5909800000000001                      15
   132   1      30.750129999999999                10.02281      16.431830000000001
   133   1      32.181960000000004      8.5909800000000001                      15
   134   1      33.613790000000002                10.02281      16.431830000000001
   135   1                35.04562      8.5909800000000001                      15
   136   1      36.477450000000005                10.02281      16.431830000000001
   137   1      37.909279999999995      8.5909800000000001                      15
   138   1                39.34111                10.02281      16.431830000000001
   139   1      40.772939999999998      8.5909800000000001                      15
   140   1      42.204769999999996                10.02281      16.431830000000001
   141   1      43.636600000000001      8.5909800000000001                      15
   142   1      45.068429999999999                10.02281      16.431830000000001
   143   1      46.500259999999997      8.5909800000000001                      15
   144   1      47.932089999999995                10.02281      16.431830000000001
   145   1                49.36392      8.5909800000000001                      15
   146   1      50.795749999999998                10.02281      16.431830000000001
   147   1      52.227579999999996      8.5909800000000001                      15
   148   1      53.659409999999994                10.02281      16.431830000000001
   149   1      55.091239999999999      8.5909800000000001                      15
   150   1      56.523069999999997                10.02281      16.431830000000001
   151   1      57.954899999999995      8.5909800000000001                      15
   152   1      59.386729999999993                10.02281      16.431830000000001
   153   1      60.818559999999998      8.5909800000000001                      15
   154   1      62.250389999999996                10.02281      16.431830000000001
   155   1      63.682220000000001      8.5909800000000001                      15
   156   1      65.114049999999992                10.02281      16.431830000000001
   157   1      66.545879999999997      8.5909800000000001                      15
   158   1      67.977710000000002                10.02281      16.431830000000001
   159   1      69.409539999999993      8.5909800000000001                      15
   160   1      70.841369999999998                10.02281      16.431830000000001
   161   1                      15      11.454639999999999                      15
   162   1      16.431830000000001      12.886469999999999      16.431830000000001
   163   1      17.863659999999999      11.454639999999999                      15
   164   1      19.295490000000001      12.886469999999999      16.431830000000001
   165   1      20.727319999999999      11.454639999999999                      15
   166   1                22.15915      12.886469999999999      16.431830000000001
   167   1      23.590980000000002      11.454639999999999                      15
   168   1                25.02281      12.886469999999999      16.431830000000001
   169   1      26.454639999999998      11.454639999999999                      15
   170   1      27.886469999999999      12.886469999999999      16.431830000000001
   171   1      29.318300000000001      11.454639999999999                      15
   172   1      30.750129999999999      12.886469999999999      16.431830000000001
   173   1      32.181960000000004      11.454639999999999                      15
   174   1      33.613790000000002      12.886469999999999      16.431830000000001
   175   1                35.04562      11.454639999999999                      15
   176   1      36.477450000000005      12.886469999999999      16.431830000000001
   177   1      37.909279999999995      11.454639999999999                      15
   178   1                39.34111      12.886469999999999      16.431830000000001
   179   1      40.772939999999998      11.454639999999999                      15
   180   1      42.204769999999996      12.886469999999999      16.431830000000001
   181   1      43.636600000000001      11.454639999999999                      15
   182   1      45.068429999999999      12.886469999999999      16.431830000000001
   183   1      46.500259999999997      11.454639999999999                      15
   184   1      47.932089999999995      12.886469999999999      16.431830000000001
   185   1                49.36392      11.454639999999999                      15
   186   1      50.795749999999998      12.886469999999999      16.431830000000001
   187   1      52.227579999999996      11.454639999999999                      15
   188   1      53.659409999999994      12.886469999999999      16.431830000000001
   189   1      55.091239999999999      11.454639999999999                      15
   190   1      56.523069999999997      12.886469999999999      16.431830000000001
   191   1      57.954899999999995      11.454639999999999                      15
   192   1      59.386729999999993      12.886469999999999      16.431830000000001
   193   1      60.818559999999998      11.454639999999999                      15
   194   1      62.250389999999996      12.886469999999999      16.431830000000001
   195   1      63.682220000000001      11.454639999999999                      15
   196   1      65.114049999999992      12.886469999999999      16.431830000000001
   197   1      66.545879999999997      11.454639999999999                      15
   198   1      67.977710000000002      12.886469999999999      16.431830000000001
   199   1      69.409539999999993      11.454639999999999                      15
   200   1      70.841369999999998      12.886469999999999      16.431830000000001
   201   1                      15      14.318299999999999                      15
   202   1      16.431830000000001      15.750129999999999      16.431830000000001
   203   1      17.863659999999999      14.318299999999999                      15
   204   1      19.295490000000001      15.750129999999999      16.431830000000001
   205   1      20.727319999999999      14.318299999999999                      15
   206   1                22.15915      15.750129999999999      16.431830000000001
   207   1      23.590980000000002      14.318299999999999                      15
   208   1                25.02281      15.750129999999999      16.431830000000001
   209   1      26.454639999999998      14.318299999999999                      15
   210   1      27.886469999999999      15.750129999999999      16.431830000000001
   211   1      29.318300000000001      14.318299999999999                      15
   212   1      30.750129999999999      15.750129999999999      16.431830000000001
   213   1      32.181960000000004      14.318299999999999                      15
   214   1      33.613790000000002      15.750129999999999      16.431830000000001
   215   1                35.04562      14.318299999999999                      15
   216   1      36.477450000000005      15.750129999999999      16.431830000000001
   217   1      37.909279999999995      14.318299999999999                      15
   218   1                39.34111      15.750129999999999      16.431830000000001
   219   1      40.772939999999998      14.318299999999999                      15
   220   1      42.204769999999996      15.750129999999999      16.431830000000001
   221   1      43.636600000000001      14.318299999999999                      15
   222   1      45.068429999999999      15.750129999999999      16.431830000000001
   223   1      46.500259999999997      14.318299999999999                      15
   224   1      47.932089999999995      15.750129999999999      16.431830000000001
   225   1                49.36392      14.318299999999999                      15
   226   1      50.795749999999998      15.750129999999999      16.431830000000001
   227   1      52.227579999999996      14.318299999999999                      15
   228   1      53.659409999999994      15.750129999999999      16.431830000000001
   229   1      55.091239999999999      14.318299999999999                      15
   230   1      56.523069999999997      15.750129999999999      16.431830000000001
   231   1      57.954899999999995      14.318299999999999                      15
   232   1      59.386729999999993      15.750129999999999      16.431830000000001
   233   1      60.818559999999998      14.318299999999999                      15
   234   1      62.250389999999996      15.750129999999999      16.431830000000001
   235   1      63.682220000000001      14.318299999999999                      15
   236   1      65.114049999999992      15.750129999999999      16.431830000000001
   237   1      66.545879999999997      14.318299999999999                      15
   238   1      67.977710000000002      15.750129999999999      16.431830000000001
   239   1      69.409539999999993      14.318299999999999                      15
   240   1      70.841369999999998      15.750129999999999      16.431830000000001
   241   1                      15                17.18196                      15
   242   1      16.431830000000001      18.613790000000002      16.431830000000001
   243   1      17.863659999999999                17.18196                      15
   244   1      19.295490000000001      18.613790000000002      16.431830000000001
   245   1      20.727319999999999                17.18196                      15
   246   1                22.15915      18.613790000000002      16.431830000000001
   247   1      23.590980000000002                17.18196                      15
   248   1                25.02281      18.613790000000002      16.431830000000001
   249   1      26.454639999999998                17.18196                      15
   250   1      27.886469999999999      18.613790000000002      16.431830000000001
   251   1      29.318300000000001                17.18196                      15
   252   1      30.750129999999999      18.613790000000002      16.431830000000001
   253   1      32.181960000000004                17.18196                      15
   254   1      33.613790000000002      18.613790000000002      16.431830000000001
   255   1                35.04562                17.18196                      15
   256   1      36.477450000000005      18.613790000000002      16.431830000000001
   257   1      37.909279999999995                17.18196                      15
   258   1                39.34111      18.613790000000002      16.431830000000001
   259   1      40.772939999999998                17.18196                      15
   260   1      42.204769999999996      18.613790000000002      16.431830000000001
   261   1      43.636600000000001                17.18196                      15
   262   1      45.068429999999999      18.613790000000002      16.431830000000001
   263   1      46.500259999999997                17.18196                      15
   264   1      47.932089999999995      18.613790000000002      16.431830000000001
   265   1                49.36392                17.18196                      15
   266   1      50.795749999999998      18.613790000000002      16.431830000000001
   267   1      52.227579999999996                17.18196                      15
   268   1      53.659409999999994      18.613790000000002      16.431830000000001
   269   1      55.091239999999999                17.18196                      15
   270   1      56.523069999999997      18.613790000000002      16.431830000000001
   271   1      57.954899999999995                17.18196                      15
   272   1      59.386729999999993      18.613790000000002      16.431830000000001
   273   1      60.818559999999998                17.18196                      15
   274   1      62.250389999999996      18.613790000000002      16.431830000000001
   275   1      63.682220000000001                17.18196                      15
   276   1      65.114049999999992      18.613790000000002      16.431830000000001
   277   1      66.545879999999997                17.18196                      15
   278   1      67.977710000000002      18.613790000000002      16.431830000000001
   279   1      69.409539999999993                17.18196                      15
   280   1      70.841369999999998      18.613790000000002      16.431830000000001
   281   1                      15                20.04562                      15
   282   1      16.431830000000001      21.477450000000001      16.431830000000001
   283   1      17.863659999999999                20.04562                      15
   284   1      19.295490000000001      21.477450000000001      16.431830000000001
   285   1      20.727319999999999                20.04562                      15
   286   1                22.15915      21.477450000000001      16.431830000000001
   287   1      23.590980000000002                20.04562                      15
   288   1                25.02281      21.477450000000001      16.431830000000001
   289   1      26.454639999999998                20.04562                      15
   290   1      27.886469999999999      21.477450000000001      16.431830000000001
   291   1      29.318300000000001                20.04562                      15
   292   1      30.750129999999999      21.477450000000001      16.431830000000001
   293   1      32.181960000000004                20.04562                      15
   294   1      33.613790000000002      21.477450000000001      16.431830000000001
   295   1                35.04562                20.04562                      15
   296   1      36.477450000000005      21.477450000000001      16.431830000000001
   297   1      37.909279999999995                20.04562                      15
   298   1                39.34111      21.477450000000001      16.431830000000001
   299   1      40.772939999999998                20.04562                      15
   300   1      42.204769999999996      21.477450000000001      16.431830000000001
   301   1      43.636600000000001                20.04562                      15
   302   1      45.068429999999999      21.477450000000001      16.431830000000001
   303   1      46.500259999999997                20.04562                      15
   304   1      47.932089999999995      21.477450000000001      16.431830000000001
   305   1                49.36392                20.04562                      15
   306   1      50.795749999999998      21.477450000000001      16.431830000000001
   307   1      52.227579999999996                20.04562                      15
   308   1      53.659409999999994      21.477450000000001      16.431830000000001
   309   1      55.091239999999999                20.04562                      15
   310   1      56.523069999999997      21.477450000000001      16.431830000000001
   311   1      57.954899999999995                20.04562                      15
   312   1      59.386729999999993      21.477450000000001      16.431830000000001
   313   1      60.818559999999998                20.04562                      15
   314   1      62.250389999999996      21.477450000000001      16.431830000000001
   315   1      63.682220000000001                20.04562                      15
   316   1      65.114049999999992      21.477450000000001      16.431830000000001
   317   1      66.545879999999997                20.04562                      15
   318   1      67.977710000000002      21.477450000000001      16.431830000000001
   319   1      69.409539999999993                20.04562                      15
   320   1      70.841369999999998      21.477450000000001      16.431830000000001
   321   1                      15      22.909279999999999                      15
   322   1      16.431830000000001                24.34111      16.431830000000001
   323   1      17.863659999999999      22.909279999999999                      15
   324   1      19.295490000000001                24.34111      16.431830000000001
   325   1      20.727319999999999      22.909279999999999                      15
   326   1                22.15915                24.34111      16.431830000000001
   327   1      23.590980000000002      22.909279999999999                      15
   328   1                25.02281                24.34111      16.431830000000001
   329   1      26.454639999999998      22.909279999999999                      15
   330   1      27.886469999999999                24.34111      16.431830000000001
   331   1      29.318300000000001      22.909279999999999                      15
   332   1      30.750129999999999                24.34111      16.431830000000001
   333   1      32.181960000000004      22.909279999999999                      15
   334   1      33.613790000000002                24.34111      16.431830000000001
   335   1                35.04562      22.909279999999999                      15
   336   1      36.477450000000005                24.34111      16.431830000000001
   337   1      37.909279999999995      22.909279999999999                      15
   338   1                39.34111                24.34111      16.431830000000001
   339   1      40.772939999999998      22.909279999999999                      15
   340   1      42.204769999999996                24.34111      16.431830000000001
   341   1      43.636600000000001      22.909279999999999                      15
   342   1      45.068429999999999                24.34111      16.431830000000001
   343   1      46.500259999999997      22.909279999999999                      15
   344   1      47.932089999999995                24.34111      16.431830000000001
   345   1                49.36392      22.909279999999999                      15
   346   1      50.795749999999998                24.34111      16.431830000000001
   347   1      52.227579999999996      22.909279999999999                      15
   348   1      53.659409999999994                24.34111      16.431830000000001
   349   1      55.091239999999999      22.909279999999999                      15
   350   1      56.523069999999997                24.34111      16.431830000000001
   351   1      57.954899999999995      22.909279999999999                      15
   352   1      59.386729999999993                24.34111      16.431830000000001
   353   1      60.818559999999998      22.909279999999999                      15
   354   1      62.250389999999996                24.34111      16.431830000000001
   355   1      63.682220000000001      22.909279999999999                      15
   356   1      65.114049999999992                24.34111      16.431830000000001
   357   1      66.545879999999997      22.909279999999999                      15
   358   1      67.977710000000002                24.34111      16.431830000000001
   359   1      69.409539999999993      22.909279999999999                      15